
 Primary working directories    : /tmp/student11
 Secondary working directories  : /tmp/student11
 Wavefunction directory         : /home/student11/wfu/
 Main file repository           : /tmp/student11/

 SHA1      : c482bac17b43c48b26a38128b48fff7249fa16f2
 NAME      : 2015.1.24
 ARCHNAME  : linux/x86_64
 FC        : /opt/intel/composer_xe_2015.1.133/bin/intel64/ifort
 BLASLIB   : -Wl,-_start-group /opt/intel/mkl/lib/intel64/libmkl_intel_ilp64.a /opt/intel/mkl/lib/intel64/libmkl_intel_thread.a /opt/intel/mkl/lib/intel64/libmkl_core.a -Wl,-_end-group
 id        : molpro

 Nodes     nprocs
 debian       1

 Using customized tuning parameters: mindgm=1; mindgv=20; mindgc=4; mindgr=1; noblas=0; minvec=7
 default implementation of scratch files=df  

 basis={
                                                                                 !
                                                                                 ! HYDROGEN       (5s,2p) -&gt; [3s,2p]
                                                                                 ! HYDROGEN       (4s,1p) -&gt; [2s,1p]
                                                                                 ! HYDROGEN       (1s,1p)
 s, H , 13.0100000, 1.9620000, 0.4446000, 0.1220000, 0.0297400
 c, 1.4, 0.0196850, 0.1379770, 0.4781480, 0.5012400
 c, 4.4, 1.0000000
 c, 5.5, 1.0000000
 p, H , 0.7270000, 0.1410000
 c, 1.1, 1.0000000
 c, 2.2, 1.0000000
 }
 
 symmetry, nosym
 geometry = {
 H1;
 H2, H1, 1.0
 }
 
 hf
 
 {matrop;
 load,s;
 print,s;
 }
 

 Variables initialized (889), CPU time= 0.00 sec
 Commands  initialized (702), CPU time= 0.01 sec, 572 directives.
 Default parameters read. Elapsed time= 0.04 sec

 Checking input...
 Passed
1


                                         ***  PROGRAM SYSTEM MOLPRO  ***
                                       Copyright, TTI GmbH Stuttgart, 2015
                                    Version 2015.1 linked Sep 21 2017 22:56:54


 **********************************************************************************************************************************
 LABEL *                                                                                 
  64 bit serial version                                                                  DATE: 24-Mar-18          TIME: 21:03:32  
 **********************************************************************************************************************************

 SHA1:             c482bac17b43c48b26a38128b48fff7249fa16f2
 **********************************************************************************************************************************

 Variable memory set to    8000000 words,  buffer space   230000 words

 SETTING BASIS          =    USERDEF
 ZSYMEL=NOSYM
 


 Recomputing integrals since basis changed


 Using spherical harmonics



 PROGRAM * SEWARD (Integral evaluation for generally contracted gaussian basis sets)     Author: Roland Lindh, 1990

 Geometry written to block  1 of record 700

 Orientation using atomic masses  
 Molecule type: Linear
 Rotational constants:    3581.0487928   3581.0487928      0.0000000 GHz  (calculated with average atomic masses)

 Point group  C1  



 ATOMIC COORDINATES

 NR  ATOM    CHARGE       X              Y              Z

   1  H1      1.00    0.000000000    0.000000000   -0.500000000
   2  H2      1.00    0.000000000    0.000000000    0.500000000

 Bond lengths in Bohr (Angstrom)

 1-2  1.000000000
     ( 0.529177211)

 NUCLEAR CHARGE:                    2
 NUMBER OF PRIMITIVE AOS:          22
 NUMBER OF SYMMETRY AOS:           22
 NUMBER OF CONTRACTIONS:           18   (  18A   )
 NUMBER OF CORE ORBITALS:           0   (   0A   )
 NUMBER OF VALENCE ORBITALS:        2   (   2A   )


 NUCLEAR REPULSION ENERGY    1.00000000

 EXTRA SYMMETRY OF AOS IN SYMMETRY 1:   1 1 1 2 3 1 2 3 1 1   1 1 2 3 1 2 3 1

 Eigenvalues of metric

         1 0.182E-03 0.574E-02 0.104E-01 0.571E-01 0.571E-01 0.795E-01 0.943E-01 0.316E+00


 Contracted 2-electron integrals neglected if value below      1.0D-11
 AO integral compression algorithm  1   Integral accuracy      1.0D-11

     0.262 MB (compressed) written to integral file ( 56.3%)


 NUMBER OF SORTED TWO-ELECTRON INTEGRALS:      14706.     BUFFER LENGTH:  32768
 NUMBER OF SEGMENTS:   1  SEGMENT LENGTH:      14706      RECORD LENGTH: 524288

 Memory used in sort:       0.57 MW

 SORT1 READ       26487. AND WROTE        4350. INTEGRALS IN      1 RECORDS. CPU TIME:     0.00 SEC, REAL TIME:     0.00 SEC
 SORT2 READ        4350. AND WROTE       14706. INTEGRALS IN      1 RECORDS. CPU TIME:     0.00 SEC, REAL TIME:     0.00 SEC

 FILE SIZES:   FILE 1:    19.3 MBYTE,  FILE 4:     4.2 MBYTE,   TOTAL:     23.6 MBYTE

 OPERATOR DM      FOR CENTER  0  COORDINATES:    0.000000    0.000000    0.000000


 **********************************************************************************************************************************
 DATASETS  * FILE   NREC   LENGTH (MB)   RECORD NAMES
              1      19       19.11       500      610      700      900      950      970     1000      129      960     1100   
                                          VAR    BASINP    GEOM    SYMINP    ZMAT    AOBASIS   BASIS     P2S    ABASIS      S 
                                         1400     1410     1200     1210     1080     1600     1650     1300     1700   
                                           T        V       H0       H01     AOSYM     SMH    MOLCAS    ERIS     OPER   

 PROGRAMS   *        TOTAL       INT
 CPU TIMES  *         0.09      0.02
 REAL TIME  *         0.17 SEC
 DISK USED  *        23.82 MB      
 **********************************************************************************************************************************


 PROGRAM * RHF-SCF (CLOSED SHELL)       Authors: W. Meyer, H.-J. Werner


 NUMBER OF ELECTRONS:       1+    1-    SPACE SYMMETRY=1    SPIN SYMMETRY: Singlet 
 CONVERGENCE THRESHOLDS:    1.00E-05 (Density)    1.00E-07 (Energy)
 MAX. NUMBER OF ITERATIONS:       60
 INTERPOLATION TYPE:            DIIS
 INTERPOLATION STEPS:              2 (START)      1 (STEP)
 LEVEL SHIFTS:                  0.00 (CLOSED)  0.00 (OPEN) 



 Orbital guess generated from atomic densities. Full valence occupancy:    1

 Molecular orbital dump at record        2100.2

 Initial occupancy:   1

 ITERATION    DDIFF          GRAD             ENERGY        2-EL.EN.            DIPOLE MOMENTS         DIIS   ORB.
    1      0.000D+00      0.000D+00        -1.06964079      1.428293    0.00000   -0.00000   -0.00000    0    start
    2      0.000D+00      0.796D-02        -1.07184786      1.469521    0.00000   -0.00000   -0.00000    1    diag
    3      0.148D-01      0.142D-02        -1.07193064      1.478391    0.00000   -0.00000   -0.00000    2    diag
    4      0.333D-02      0.956D-04        -1.07193099      1.478707    0.00000   -0.00000   -0.00000    3    diag
    5      0.126D-03      0.416D-05        -1.07193099      1.478701    0.00000   -0.00000   -0.00000    4    diag
    6      0.109D-04      0.374D-06        -1.07193099      1.478704    0.00000   -0.00000   -0.00000    5    diag
    7      0.801D-06      0.248D-07        -1.07193099      1.478703    0.00000   -0.00000   -0.00000    0    orth

 Final occupancy:   1

 !RHF STATE 1.1 Energy                 -1.071930994508
 Nuclear energy                         1.00000000
 One-electron energy                   -2.81128271
 Two-electron energy                    0.73935172
 Virial quotient                       -0.80475141
 !RHF STATE 1.1 Dipole moment           0.00000000    -0.00000000    -0.00000000
 Dipole moment /Debye                   0.00000000    -0.00000000    -0.00000000

 Orbital energies:

         1.1          2.1          3.1
     -0.666290     0.063638     0.063723

 HOMO      1.1    -0.666290 =     -18.1307eV
 LUMO      2.1     0.063638 =       1.7317eV
 LUMO-HOMO         0.729928 =      19.8624eV


 **********************************************************************************************************************************
 DATASETS  * FILE   NREC   LENGTH (MB)   RECORD NAMES
              1      19       19.11       500      610      700      900      950      970     1000      129      960     1100   
                                          VAR    BASINP    GEOM    SYMINP    ZMAT    AOBASIS   BASIS     P2S    ABASIS      S 
                                         1400     1410     1200     1210     1080     1600     1650     1300     1700   
                                           T        V       H0       H01     AOSYM     SMH    MOLCAS    ERIS     OPER   

              2       4        2.75       700     1000      520     2100   
                                         GEOM     BASIS   MCVARS     RHF  

 PROGRAMS   *        TOTAL        HF       INT
 CPU TIMES  *         0.12      0.03      0.02
 REAL TIME  *         0.20 SEC
 DISK USED  *        23.82 MB      
 **********************************************************************************************************************************


 PROGRAM * MATROP

 
 Overlap matrix loaded to S

 MATRIX S               

 SYMMETRY BLOCK 1.1
 
    1.00000000   0.90368690   0.53306360   0.00000000   0.00000000   0.00000000   0.00000000   0.00000000   0.00000000   0.85833711
    0.83648357   0.51975539   0.00000000   0.00000000  -0.37887571   0.00000000   0.00000000  -0.38778845
 
    0.90368690   1.00000000   0.70740882   0.00000000   0.00000000   0.00000000   0.00000000   0.00000000   0.00000000   0.83648357
    0.94082324   0.69069448   0.00000000   0.00000000  -0.12971293   0.00000000   0.00000000  -0.32503743
 
    0.53306360   0.70740882   1.00000000   0.00000000   0.00000000   0.00000000   0.00000000   0.00000000   0.00000000   0.51975539
    0.69069448   0.98524001   0.00000000   0.00000000  -0.01577846   0.00000000   0.00000000  -0.08432206
 
    0.00000000   0.00000000   0.00000000   1.00000000   0.00000000   0.00000000   0.46743107   0.00000000   0.00000000   0.00000000
    0.00000000   0.00000000   0.69523873   0.00000000   0.00000000   0.41536443   0.00000000   0.00000000
 
    0.00000000   0.00000000   0.00000000   0.00000000   1.00000000   0.00000000   0.00000000   0.46743107   0.00000000   0.00000000
    0.00000000   0.00000000   0.00000000   0.69523873   0.00000000   0.00000000   0.41536443   0.00000000
 
    0.00000000   0.00000000   0.00000000   0.00000000   0.00000000   1.00000000   0.00000000   0.00000000   0.46743107   0.37887571
    0.12971293   0.01577846   0.00000000   0.00000000   0.18980017   0.00000000   0.00000000   0.31725899
 
    0.00000000   0.00000000   0.00000000   0.46743107   0.00000000   0.00000000   1.00000000   0.00000000   0.00000000   0.00000000
    0.00000000   0.00000000   0.41536443   0.00000000   0.00000000   0.93192774   0.00000000   0.00000000
 
    0.00000000   0.00000000   0.00000000   0.00000000   0.46743107   0.00000000   0.00000000   1.00000000   0.00000000   0.00000000
    0.00000000   0.00000000   0.00000000   0.41536443   0.00000000   0.00000000   0.93192774   0.00000000
 
    0.00000000   0.00000000   0.00000000   0.00000000   0.00000000   0.46743107   0.00000000   0.00000000   1.00000000   0.38778845
    0.32503743   0.08432206   0.00000000   0.00000000   0.31725899   0.00000000   0.00000000   0.80052593
 
    0.85833711   0.83648357   0.51975539   0.00000000   0.00000000   0.37887571   0.00000000   0.00000000   0.38778845   1.00000000
    0.90368690   0.53306360   0.00000000   0.00000000   0.00000000   0.00000000   0.00000000   0.00000000
 
    0.83648357   0.94082324   0.69069448   0.00000000   0.00000000   0.12971293   0.00000000   0.00000000   0.32503743   0.90368690
    1.00000000   0.70740882   0.00000000   0.00000000   0.00000000   0.00000000   0.00000000   0.00000000
 
    0.51975539   0.69069448   0.98524001   0.00000000   0.00000000   0.01577846   0.00000000   0.00000000   0.08432206   0.53306360
    0.70740882   1.00000000   0.00000000   0.00000000   0.00000000   0.00000000   0.00000000   0.00000000
 
    0.00000000   0.00000000   0.00000000   0.69523873   0.00000000   0.00000000   0.41536443   0.00000000   0.00000000   0.00000000
    0.00000000   0.00000000   1.00000000   0.00000000   0.00000000   0.46743107   0.00000000   0.00000000
 
    0.00000000   0.00000000   0.00000000   0.00000000   0.69523873   0.00000000   0.00000000   0.41536443   0.00000000   0.00000000
    0.00000000   0.00000000   0.00000000   1.00000000   0.00000000   0.00000000   0.46743107   0.00000000
 
   -0.37887571  -0.12971293  -0.01577846   0.00000000   0.00000000   0.18980017   0.00000000   0.00000000   0.31725899   0.00000000
    0.00000000   0.00000000   0.00000000   0.00000000   1.00000000   0.00000000   0.00000000   0.46743107
 
    0.00000000   0.00000000   0.00000000   0.41536443   0.00000000   0.00000000   0.93192774   0.00000000   0.00000000   0.00000000
    0.00000000   0.00000000   0.46743107   0.00000000   0.00000000   1.00000000   0.00000000   0.00000000
 
    0.00000000   0.00000000   0.00000000   0.00000000   0.41536443   0.00000000   0.00000000   0.93192774   0.00000000   0.00000000
    0.00000000   0.00000000   0.00000000   0.46743107   0.00000000   0.00000000   1.00000000   0.00000000
 
   -0.38778845  -0.32503743  -0.08432206   0.00000000   0.00000000   0.31725899   0.00000000   0.00000000   0.80052593   0.00000000
    0.00000000   0.00000000   0.00000000   0.00000000   0.46743107   0.00000000   0.00000000   1.00000000


 **********************************************************************************************************************************
 DATASETS  * FILE   NREC   LENGTH (MB)   RECORD NAMES
              1      19       19.11       500      610      700      900      950      970     1000      129      960     1100   
                                          VAR    BASINP    GEOM    SYMINP    ZMAT    AOBASIS   BASIS     P2S    ABASIS      S 
                                         1400     1410     1200     1210     1080     1600     1650     1300     1700   
                                           T        V       H0       H01     AOSYM     SMH    MOLCAS    ERIS     OPER   

              2       4        2.75       700     1000      520     2100   
                                         GEOM     BASIS   MCVARS     RHF  

 PROGRAMS   *        TOTAL    MATROP        HF       INT
 CPU TIMES  *         0.12      0.00      0.03      0.02
 REAL TIME  *         0.20 SEC
 DISK USED  *        23.82 MB      
 **********************************************************************************************************************************

        HF-SCF  
     -1.07193099
 **********************************************************************************************************************************
 Molpro calculation terminated
 Variable memory released
